# vtk DataFile Version 2.0
3D Unstructured Grid of Linear Triangles
ASCII

DATASET UNSTRUCTURED_GRID
POINTS 121 float
    0.000000    0.000000    0.000000
   10.000000    0.000000    0.000000
   20.000000    0.000000    0.000000
   30.000000    0.000000    0.000000
   40.000000    0.000000    0.000000
   50.000000    0.000000    0.000000
   60.000000    0.000000    0.000000
   70.000000    0.000000    0.000000
   80.000000    0.000000    0.000000
   90.000000    0.000000    0.000000
  100.000000    0.000000    0.000000
    0.000000   10.000000    0.000000
   10.000000   10.000000    0.000000
   20.000000   10.000000    0.000000
   30.000000   10.000000    0.000000
   40.000000   10.000000    0.000000
   50.000000   10.000000    0.000000
   60.000000   10.000000    0.000000
   70.000000   10.000000    0.000000
   80.000000   10.000000    0.000000
   90.000000   10.000000    0.000000
  100.000000   10.000000    0.000000
    0.000000   20.000000    0.000000
   10.000000   20.000000    0.000000
   20.000000   20.000000    0.000000
   30.000000   20.000000    0.000000
   40.000000   20.000000    0.000000
   50.000000   20.000000    0.000000
   60.000000   20.000000    0.000000
   70.000000   20.000000    0.000000
   80.000000   20.000000    0.000000
   90.000000   20.000000    0.000000
  100.000000   20.000000    0.000000
    0.000000   30.000000    0.000000
   10.000000   30.000000    0.000000
   20.000000   30.000000    0.000000
   30.000000   30.000000    0.000000
   40.000000   30.000000    0.000000
   50.000000   30.000000    0.000000
   60.000000   30.000000    0.000000
   70.000000   30.000000    0.000000
   80.000000   30.000000    0.000000
   90.000000   30.000000    0.000000
  100.000000   30.000000    0.000000
    0.000000   40.000000    0.000000
   10.000000   40.000000    0.000000
   20.000000   40.000000    0.000000
   30.000000   40.000000    0.000000
   40.000000   40.000000    0.000000
   50.000000   40.000000    0.000000
   60.000000   40.000000    0.000000
   70.000000   40.000000    0.000000
   80.000000   40.000000    0.000000
   90.000000   40.000000    0.000000
  100.000000   40.000000    0.000000
    0.000000   50.000000    0.000000
   10.000000   50.000000    0.000000
   20.000000   50.000000    0.000000
   30.000000   50.000000    0.000000
   40.000000   50.000000    0.000000
   50.000000   50.000000    0.000000
   60.000000   50.000000    0.000000
   70.000000   50.000000    0.000000
   80.000000   50.000000    0.000000
   90.000000   50.000000    0.000000
  100.000000   50.000000    0.000000
    0.000000   60.000000    0.000000
   10.000000   60.000000    0.000000
   20.000000   60.000000    0.000000
   30.000000   60.000000    0.000000
   40.000000   60.000000    0.000000
   50.000000   60.000000    0.000000
   60.000000   60.000000    0.000000
   70.000000   60.000000    0.000000
   80.000000   60.000000    0.000000
   90.000000   60.000000    0.000000
  100.000000   60.000000    0.000000
    0.000000   70.000000    0.000000
   10.000000   70.000000    0.000000
   20.000000   70.000000    0.000000
   30.000000   70.000000    0.000000
   40.000000   70.000000    0.000000
   50.000000   70.000000    0.000000
   60.000000   70.000000    0.000000
   70.000000   70.000000    0.000000
   80.000000   70.000000    0.000000
   90.000000   70.000000    0.000000
  100.000000   70.000000    0.000000
    0.000000   80.000000    0.000000
   10.000000   80.000000    0.000000
   20.000000   80.000000    0.000000
   30.000000   80.000000    0.000000
   40.000000   80.000000    0.000000
   50.000000   80.000000    0.000000
   60.000000   80.000000    0.000000
   70.000000   80.000000    0.000000
   80.000000   80.000000    0.000000
   90.000000   80.000000    0.000000
  100.000000   80.000000    0.000000
    0.000000   90.000000    0.000000
   10.000000   90.000000    0.000000
   20.000000   90.000000    0.000000
   30.000000   90.000000    0.000000
   40.000000   90.000000    0.000000
   50.000000   90.000000    0.000000
   60.000000   90.000000    0.000000
   70.000000   90.000000    0.000000
   80.000000   90.000000    0.000000
   90.000000   90.000000    0.000000
  100.000000   90.000000    0.000000
    0.000000  100.000000    0.000000
   10.000000  100.000000    0.000000
   20.000000  100.000000    0.000000
   30.000000  100.000000    0.000000
   40.000000  100.000000    0.000000
   50.000000  100.000000    0.000000
   60.000000  100.000000    0.000000
   70.000000  100.000000    0.000000
   80.000000  100.000000    0.000000
   90.000000  100.000000    0.000000
  100.000000  100.000000    0.000000

CELLS 200 800
3     0     1    11
3    11     1    12
3     1     2    12
3    12     2    13
3     2     3    13
3    13     3    14
3     3     4    14
3    14     4    15
3     4     5    15
3    15     5    16
3     5     6    16
3    16     6    17
3     6     7    17
3    17     7    18
3     7     8    18
3    18     8    19
3     8     9    19
3    19     9    20
3     9    10    20
3    20    10    21
3    11    12    22
3    22    12    23
3    12    13    23
3    23    13    24
3    13    14    24
3    24    14    25
3    14    15    25
3    25    15    26
3    15    16    26
3    26    16    27
3    16    17    27
3    27    17    28
3    17    18    28
3    28    18    29
3    18    19    29
3    29    19    30
3    19    20    30
3    30    20    31
3    20    21    31
3    31    21    32
3    22    23    33
3    33    23    34
3    23    24    34
3    34    24    35
3    24    25    35
3    35    25    36
3    25    26    36
3    36    26    37
3    26    27    37
3    37    27    38
3    27    28    38
3    38    28    39
3    28    29    39
3    39    29    40
3    29    30    40
3    40    30    41
3    30    31    41
3    41    31    42
3    31    32    42
3    42    32    43
3    33    34    44
3    44    34    45
3    34    35    45
3    45    35    46
3    35    36    46
3    46    36    47
3    36    37    47
3    47    37    48
3    37    38    48
3    48    38    49
3    38    39    49
3    49    39    50
3    39    40    50
3    50    40    51
3    40    41    51
3    51    41    52
3    41    42    52
3    52    42    53
3    42    43    53
3    53    43    54
3    44    45    55
3    55    45    56
3    45    46    56
3    56    46    57
3    46    47    57
3    57    47    58
3    47    48    58
3    58    48    59
3    48    49    59
3    59    49    60
3    49    50    60
3    60    50    61
3    50    51    61
3    61    51    62
3    51    52    62
3    62    52    63
3    52    53    63
3    63    53    64
3    53    54    64
3    64    54    65
3    55    56    66
3    66    56    67
3    56    57    67
3    67    57    68
3    57    58    68
3    68    58    69
3    58    59    69
3    69    59    70
3    59    60    70
3    70    60    71
3    60    61    71
3    71    61    72
3    61    62    72
3    72    62    73
3    62    63    73
3    73    63    74
3    63    64    74
3    74    64    75
3    64    65    75
3    75    65    76
3    66    67    77
3    77    67    78
3    67    68    78
3    78    68    79
3    68    69    79
3    79    69    80
3    69    70    80
3    80    70    81
3    70    71    81
3    81    71    82
3    71    72    82
3    82    72    83
3    72    73    83
3    83    73    84
3    73    74    84
3    84    74    85
3    74    75    85
3    85    75    86
3    75    76    86
3    86    76    87
3    77    78    88
3    88    78    89
3    78    79    89
3    89    79    90
3    79    80    90
3    90    80    91
3    80    81    91
3    91    81    92
3    81    82    92
3    92    82    93
3    82    83    93
3    93    83    94
3    83    84    94
3    94    84    95
3    84    85    95
3    95    85    96
3    85    86    96
3    96    86    97
3    86    87    97
3    97    87    98
3    88    89    99
3    99    89   100
3    89    90   100
3   100    90   101
3    90    91   101
3   101    91   102
3    91    92   102
3   102    92   103
3    92    93   103
3   103    93   104
3    93    94   104
3   104    94   105
3    94    95   105
3   105    95   106
3    95    96   106
3   106    96   107
3    96    97   107
3   107    97   108
3    97    98   108
3   108    98   109
3    99   100   110
3   110   100   111
3   100   101   111
3   111   101   112
3   101   102   112
3   112   102   113
3   102   103   113
3   113   103   114
3   103   104   114
3   114   104   115
3   104   105   115
3   115   105   116
3   105   106   116
3   116   106   117
3   106   107   117
3   117   107   118
3   107   108   118
3   118   108   119
3   108   109   119
3   119   109   120

CELL_TYPES 200
5
5
5
5
5
5
5
5
5
5
5
5
5
5
5
5
5
5
5
5
5
5
5
5
5
5
5
5
5
5
5
5
5
5
5
5
5
5
5
5
5
5
5
5
5
5
5
5
5
5
5
5
5
5
5
5
5
5
5
5
5
5
5
5
5
5
5
5
5
5
5
5
5
5
5
5
5
5
5
5
5
5
5
5
5
5
5
5
5
5
5
5
5
5
5
5
5
5
5
5
5
5
5
5
5
5
5
5
5
5
5
5
5
5
5
5
5
5
5
5
5
5
5
5
5
5
5
5
5
5
5
5
5
5
5
5
5
5
5
5
5
5
5
5
5
5
5
5
5
5
5
5
5
5
5
5
5
5
5
5
5
5
5
5
5
5
5
5
5
5
5
5
5
5
5
5
5
5
5
5
5
5
5
5
5
5
5
5
5
5
5
5
5
5
5
5
5
5
5
5

POINT_DATA 121
SCALARS bc int
LOOKUP_TABLE default
3
3
3
3
3
3
3
3
3
3
3
3
0
0
0
0
0
0
0
0
0
3
3
0
0
0
0
0
0
0
0
0
3
3
0
0
0
0
0
0
0
0
0
3
3
0
0
0
0
0
0
0
0
0
3
3
0
0
0
0
0
0
0
0
0
3
3
0
0
0
0
0
0
0
0
0
3
3
0
0
0
0
0
0
0
0
0
3
3
0
0
0
0
0
0
0
0
0
3
3
0
0
0
0
0
0
0
0
0
3
3
3
3
3
3
3
3
3
3
3
3

CELL_DATA 200
SCALARS material int
LOOKUP_TABLE default
1
1
1
1
1
1
1
1
1
1
1
1
1
1
1
1
1
1
1
1
1
1
1
1
1
1
1
1
1
1
1
1
1
1
1
1
1
1
1
1
1
1
1
1
1
1
1
1
1
1
1
1
1
1
1
1
1
1
1
1
1
1
1
1
1
1
1
1
1
1
1
1
1
1
1
1
1
1
1
1
1
1
1
1
1
1
1
1
1
1
1
1
1
1
1
1
1
1
1
1
1
1
1
1
1
1
1
1
1
1
1
1
1
1
1
1
1
1
1
1
1
1
1
1
1
1
1
1
1
1
1
1
1
1
1
1
1
1
1
1
1
1
1
1
1
1
1
1
1
1
1
1
1
1
1
1
1
1
1
1
1
1
1
1
1
1
1
1
1
1
1
1
1
1
1
1
1
1
1
1
1
1
1
1
1
1
1
1
1
1
1
1
1
1
1
1
1
1
1
1
SCALARS hexnum int
LOOKUP_TABLE default
1
1
11
11
21
21
31
31
41
41
51
51
61
61
71
71
81
81
91
91
2
2
12
12
22
22
32
32
42
42
52
52
62
62
72
72
82
82
92
92
3
3
13
13
23
23
33
33
43
43
53
53
63
63
73
73
83
83
93
93
4
4
14
14
24
24
34
34
44
44
54
54
64
64
74
74
84
84
94
94
5
5
15
15
25
25
35
35
45
45
55
55
65
65
75
75
85
85
95
95
6
6
16
16
26
26
36
36
46
46
56
56
66
66
76
76
86
86
96
96
7
7
17
17
27
27
37
37
47
47
57
57
67
67
77
77
87
87
97
97
8
8
18
18
28
28
38
38
48
48
58
58
68
68
78
78
88
88
98
98
9
9
19
19
29
29
39
39
49
49
59
59
69
69
79
79
89
89
99
99
10
10
20
20
30
30
40
40
50
50
60
60
70
70
80
80
90
90
100
100
