# vtk DataFile Version 2.0
3D Unstructured Grid of Linear Triangles
ASCII

DATASET UNSTRUCTURED_GRID
POINTS 55 float
    0.000000    0.000000    0.000000
    0.111111    0.000000    0.000000
    0.222222    0.000000    0.000000
    0.333333    0.000000    0.000000
    0.444444    0.000000    0.000000
    0.555556    0.000000    0.000000
    0.666667    0.000000    0.000000
    0.777778    0.000000    0.000000
    0.888889    0.000000    0.000000
    1.000000    0.000000    0.000000
    0.000000    0.192450    0.000000
    0.111111    0.192450    0.000000
    0.222222    0.192450    0.000000
    0.333333    0.192450    0.000000
    0.444444    0.192450    0.000000
    0.555556    0.192450    0.000000
    0.666667    0.192450    0.000000
    0.777778    0.192450    0.000000
    0.888889    0.192450    0.000000
    0.000000    0.384900    0.000000
    0.111111    0.384900    0.000000
    0.222222    0.384900    0.000000
    0.333333    0.384900    0.000000
    0.444444    0.384900    0.000000
    0.555556    0.384900    0.000000
    0.666667    0.384900    0.000000
    0.777778    0.384900    0.000000
    0.000000    0.577350    0.000000
    0.111111    0.577350    0.000000
    0.222222    0.577350    0.000000
    0.333333    0.577350    0.000000
    0.444444    0.577350    0.000000
    0.555556    0.577350    0.000000
    0.666667    0.577350    0.000000
    0.000000    0.769800    0.000000
    0.111111    0.769800    0.000000
    0.222222    0.769800    0.000000
    0.333333    0.769800    0.000000
    0.444444    0.769800    0.000000
    0.555556    0.769800    0.000000
    0.000000    0.962250    0.000000
    0.111111    0.962250    0.000000
    0.222222    0.962250    0.000000
    0.333333    0.962250    0.000000
    0.444444    0.962250    0.000000
    0.000000    1.154701    0.000000
    0.111111    1.154701    0.000000
    0.222222    1.154701    0.000000
    0.333333    1.154701    0.000000
    0.000000    1.347151    0.000000
    0.111111    1.347151    0.000000
    0.222222    1.347151    0.000000
    0.000000    1.539601    0.000000
    0.111111    1.539601    0.000000
    0.000000    1.732051    0.000000

CELLS 81 324
3     0     1    10
3     1    11    10
3     1     2    11
3     2    12    11
3     2     3    12
3     3    13    12
3     3     4    13
3     4    14    13
3     4     5    14
3     5    15    14
3     5     6    15
3     6    16    15
3     6     7    16
3     7    17    16
3     7     8    17
3     8    18    17
3     8     9    18
3    10    11    19
3    11    20    19
3    11    12    20
3    12    21    20
3    12    13    21
3    13    22    21
3    13    14    22
3    14    23    22
3    14    15    23
3    15    24    23
3    15    16    24
3    16    25    24
3    16    17    25
3    17    26    25
3    17    18    26
3    19    20    27
3    20    28    27
3    20    21    28
3    21    29    28
3    21    22    29
3    22    30    29
3    22    23    30
3    23    31    30
3    23    24    31
3    24    32    31
3    24    25    32
3    25    33    32
3    25    26    33
3    27    28    34
3    28    35    34
3    28    29    35
3    29    36    35
3    29    30    36
3    30    37    36
3    30    31    37
3    31    38    37
3    31    32    38
3    32    39    38
3    32    33    39
3    34    35    40
3    35    41    40
3    35    36    41
3    36    42    41
3    36    37    42
3    37    43    42
3    37    38    43
3    38    44    43
3    38    39    44
3    40    41    45
3    41    46    45
3    41    42    46
3    42    47    46
3    42    43    47
3    43    48    47
3    43    44    48
3    45    46    49
3    46    50    49
3    46    47    50
3    47    51    50
3    47    48    51
3    49    50    52
3    50    53    52
3    50    51    53
3    52    53    54

CELL_TYPES 81
5
5
5
5
5
5
5
5
5
5
5
5
5
5
5
5
5
5
5
5
5
5
5
5
5
5
5
5
5
5
5
5
5
5
5
5
5
5
5
5
5
5
5
5
5
5
5
5
5
5
5
5
5
5
5
5
5
5
5
5
5
5
5
5
5
5
5
5
5
5
5
5
5
5
5
5
5
5
5
5
5

POINT_DATA 55
SCALARS bc float
LOOKUP_TABLE default
0
0
0
0
0
0
0
0
0
0
0
0
0
0
0
0
0
0
0
0
0
0
0
0
0
0
0
0
0
0
0
0
0
0
0
0
0
0
0
0
0
0
0
0
0
0
0
0
0
0
0
0
0
0
0

CELL_DATA 81
SCALARS material float
LOOKUP_TABLE default
1
1
1
1
1
1
1
1
1
1
1
1
1
1
1
1
1
1
1
1
1
1
1
1
1
1
1
1
1
1
1
1
1
1
1
1
1
1
1
1
1
1
1
1
1
1
1
1
1
1
1
1
1
1
1
1
1
1
1
1
1
1
1
1
1
1
1
1
1
1
1
1
1
1
1
1
1
1
1
1
1
